LAMMPS (9 Dec 2014)
variable        x index 1
variable        y index 1
variable        z index 1

variable        xx equal 20*$x
variable        xx equal 20*1
variable        yy equal 20*$y
variable        yy equal 20*1
variable        zz equal 20*$z
variable        zz equal 20*1

units           metal
atom_style      atomic

lattice         fcc 3.6100
Lattice spacing in x,y,z = 3.61 3.61 3.61
region          box block 0.0 ${xx} 0.0 ${yy} 0.0 ${zz}
region          box block 0.0 20 0.0 ${yy} 0.0 ${zz}
region          box block 0.0 20 0.0 20 0.0 ${zz}
region          box block 0.0 20 0.0 20 0.0 20
create_box      1 box
Created orthogonal box = (0 0 0) to (72.2 72.2 72.2)
  1 by 1 by 1 MPI processor grid
create_atoms    1 box
Created 32000 atoms

#pair_style      kim KIMvirial EAM_Johnson_NearestNeighbor_Cu__MO_887933271505_001
pair_style      kim KIMvirial EAM_Dynamo_Mendelev_King_Cu__MO_748636486270_001
pair_coeff      * * Cu

mass            1 63.546
velocity        all create 200.0 232345 loop geom

neighbor        0.3 bin
neigh_modify    delay 0 every 1 check yes

fix             PRESS all press/berendsen aniso 0 0 1 modulus 1400000
fix             LGV all langevin 200 200 1 7956823
fix             1 all nve

thermo          100
run             10000
Memory usage per processor = 9.45458 Mbytes
Step Temp E_pair E_mol TotEng Press Volume 
       0          200    -109425.7            0   -108598.46    38682.742    376367.05 
     100    113.90516   -109011.75            0   -108540.62    35193.112    377363.77 
     200    113.90994    -108958.1            0   -108486.95    31515.418     378259.8 
     300    130.67029   -108979.32            0   -108438.85    28279.191    379067.27 
     400    127.39488    -108917.7            0   -108390.77     25429.78    379794.48 
     500    141.86659    -108933.5            0   -108346.72    22992.539    380451.01 
     600    144.72361   -108907.61            0   -108309.01     20677.38    381043.72 
     700    150.93044   -108896.65            0   -108272.38    18708.974    381579.87 
     800     156.1842   -108882.94            0   -108236.94    16942.077    382065.19 
     900    158.97783   -108862.04            0   -108204.48    15298.931     382504.6 
    1000     164.1246   -108855.01            0   -108176.16    13842.835    382902.78 
    1100    167.33536   -108837.39            0   -108145.26    12551.252    383263.67 
    1200     169.7556   -108828.75            0   -108126.61    11386.577    383590.58 
    1300    172.75757   -108819.19            0   -108104.63    10288.637    383887.23 
    1400    174.77628   -108810.69            0   -108087.79    9318.3812    384156.01 
    1500    177.43988   -108802.52            0   -108068.59    8479.5632    384399.26 
    1600    179.77682   -108794.93            0   -108051.34    7702.6473    384621.35 
    1700    182.73527    -108789.1            0   -108033.27    6961.8344    384822.95 
    1800    184.27102   -108781.78            0   -108019.59    6352.8942    385006.34 
    1900    185.14885   -108774.17            0   -108008.36    5754.5197    385172.82 
    2000    186.12472    -108765.2            0   -107995.35    5269.8284    385324.05 
    2100    187.29567   -108756.98            0   -107982.29    4755.9616    385462.19 
    2200    188.24622   -108749.85            0   -107971.22    4352.1926     385587.6 
    2300    190.91518   -108750.42            0   -107960.76    3923.7577    385701.63 
    2400    191.03173   -108742.22            0   -107952.08    3589.0582    385805.07 
    2500    192.34522    -108742.1            0   -107946.52    3228.3555     385899.2 
    2600    192.00122   -108735.16            0   -107941.01     2985.201    385985.15 
    2700    193.69306   -108733.14            0   -107931.98    2732.7585    386063.63 
    2800    194.00566   -108728.92            0   -107926.48    2459.3546    386134.71 
    2900    194.64018   -108727.75            0   -107922.68    2231.6015    386199.43 
    3000    195.01486   -108723.55            0   -107916.93    2056.4476    386259.01 
    3100    196.50245   -108726.86            0   -107914.08    1849.2644    386312.69 
    3200    196.11042   -108721.79            0   -107910.64    1694.6787    386361.79 
    3300    197.05821   -108718.94            0   -107903.87    1545.4097    386406.59 
    3400     196.4206   -108716.63            0    -107904.2    1398.6999    386447.71 
    3500    196.88756   -108718.15            0   -107903.78    1234.4422    386484.22 
    3600    197.15843   -108714.42            0   -107898.93    1151.1777    386517.05 
    3700    198.34616   -108715.49            0   -107895.09    1051.4973    386547.38 
    3800    197.25051   -108708.89            0   -107893.02    953.77649     386575.4 
    3900    197.14503   -108708.14            0   -107892.71    885.12118    386600.71 
    4000    197.47826   -108707.38            0   -107890.57    777.72825    386623.99 
    4100    198.67989   -108712.23            0   -107890.45    686.41767     386644.1 
    4200    197.52817   -108711.27            0   -107894.26    637.51541    386662.67 
    4300    197.76272   -108712.22            0   -107894.24    586.36977    386679.16 
    4400    197.74313    -108711.8            0    -107893.9    520.55489    386694.33 
    4500    198.28303   -108708.77            0   -107888.63     493.4422    386707.59 
    4600    198.57968   -108713.91            0   -107892.55    378.44191    386720.19 
    4700    198.68284    -108710.7            0   -107888.91     393.3442    386731.01 
    4800      199.923      -108713            0   -107886.08    396.67375    386741.66 
    4900    198.55143    -108705.2            0   -107883.96    345.78625     386751.5 
    5000    200.28566   -108713.59            0   -107885.17    297.07515    386759.88 
    5100    200.62757    -108712.4            0   -107882.57    253.60815    386767.75 
    5200    199.37585   -108707.16            0    -107882.5    254.64962     386775.4 
    5300    199.01244   -108706.36            0   -107883.21    208.47847       386782 
    5400    199.01927   -108704.88            0    -107881.7    200.73816    386787.42 
    5500    198.58399   -108703.66            0   -107882.27    219.17369    386792.34 
    5600    200.64047   -108710.86            0   -107880.97    166.35321    386797.28 
    5700    199.06589   -108702.71            0   -107879.33    202.60073    386802.71 
    5800    198.69812   -108704.66            0    -107882.8    154.54848    386807.99 
    5900    198.60858   -108703.19            0    -107881.7    184.20562    386811.64 
    6000    201.20682   -108714.18            0   -107881.95    105.50426    386815.26 
    6100    200.24132   -108710.27            0   -107882.03    96.534739    386818.31 
    6200    199.63656   -108705.66            0   -107879.92    108.76503    386821.16 
    6300    198.57562   -108701.61            0   -107880.26    123.66102    386823.91 
    6400    198.89749   -108703.76            0   -107881.08    63.553338    386826.27 
    6500    200.13515   -108707.47            0   -107879.67    53.875191    386827.91 
    6600    199.79135   -108707.51            0   -107881.13    86.358417    386829.99 
    6700    199.90232   -108708.07            0   -107881.24     24.20952    386831.49 
    6800    200.75061   -108710.27            0   -107879.93     22.08416    386832.76 
    6900    199.51055   -108705.85            0   -107880.64    22.962522    386833.91 
    7000    199.36126   -108709.04            0   -107884.44    14.018961    386833.84 
    7100    198.00553   -108704.45            0   -107885.46     23.73707    386834.28 
    7200    199.01629   -108711.51            0   -107888.34    10.595975    386834.41 
    7300     200.0751   -108715.16            0   -107887.61   -4.8270023    386834.63 
    7400    199.86652   -108711.72            0   -107885.04    3.5347387    386835.26 
    7500    198.58973      -108705            0   -107883.59    48.327808    386835.94 
    7600    199.17395   -108704.54            0   -107880.72    19.625583     386836.6 
    7700    198.42305   -108706.91            0   -107886.19    16.226665    386836.99 
    7800    199.00807   -108711.76            0   -107888.63   -29.936754    386836.82 
    7900    199.08474   -108711.52            0   -107888.07   -12.112115    386836.21 
    8000    199.31439   -108712.97            0   -107888.57   -30.229665    386835.97 
    8100     199.1737   -108710.77            0   -107886.95    22.763911    386835.54 
    8200    199.25209   -108709.88            0   -107885.74    3.6106852    386836.17 
    8300    199.49905   -108710.37            0   -107885.21    5.0518818    386835.81 
    8400     199.5514   -108708.69            0    -107883.3    4.7395931    386836.52 
    8500    198.22155   -108703.87            0   -107883.98    29.940224    386836.97 
    8600    199.98687   -108709.64            0   -107882.46    17.832556    386837.84 
    8700    201.32914   -108715.34            0    -107882.6   -10.366383    386838.24 
    8800    199.07598   -108707.48            0   -107884.06   -9.9817043    386838.57 
    8900     199.8458   -108710.22            0   -107883.62    50.343153    386839.29 
    9000    199.18614   -108706.58            0   -107882.71    26.684906     386840.1 
    9100    199.18216   -108703.93            0   -107880.07    37.930794    386840.53 
    9200    199.13522   -108706.46            0    -107882.8    20.921164    386841.66 
    9300    199.56012   -108708.32            0    -107882.9   -1.0750055    386841.69 
    9400    198.85343   -108703.83            0   -107881.33      49.3548    386842.13 
    9500    200.01541   -108701.63            0   -107874.32    32.039055    386842.89 
    9600    201.23721   -108701.58            0   -107869.22    20.594881    386843.02 
    9700    201.25735   -108702.36            0   -107869.92    35.713219    386844.43 
    9800    201.41174   -108704.63            0   -107871.55    24.391472     386845.3 
    9900    201.12656   -108704.45            0   -107872.55    25.436978    386846.22 
   10000    198.90305   -108698.96            0   -107876.26    7.8183285    386846.71 
Loop time of 1302.48 on 1 procs for 10000 steps with 32000 atoms

Pair  time (%) = 1231.42 (94.5444)
Neigh time (%) = 40.9278 (3.1423)
Comm  time (%) = 2.55754 (0.19636)
Outpt time (%) = 0.0122879 (0.000943423)
Other time (%) = 27.5604 (2.116)

Nlocal:    32000 ave 32000 max 32000 min
Histogram: 1 0 0 0 0 0 0 0 0 0
Nghost:    19911 ave 19911 max 19911 min
Histogram: 1 0 0 0 0 0 0 0 0 0
Neighs:    1.42892e+06 ave 1.42892e+06 max 1.42892e+06 min
Histogram: 1 0 0 0 0 0 0 0 0 0

Total # of neighbors = 1428918
Ave neighs/atom = 44.6537
Neighbor list builds = 499
Dangerous builds = 0