LAMMPS (9 Dec 2014)
variable        x index 1
variable        y index 1
variable        z index 1

variable        xx equal 20*$x
variable        xx equal 20*1
variable        yy equal 20*$y
variable        yy equal 20*1
variable        zz equal 20*$z
variable        zz equal 20*1

units           metal
atom_style      atomic

lattice         fcc 3.6100
Lattice spacing in x,y,z = 3.61 3.61 3.61
region          box block 0.0 ${xx} 0.0 ${yy} 0.0 ${zz}
region          box block 0.0 20 0.0 ${yy} 0.0 ${zz}
region          box block 0.0 20 0.0 20 0.0 ${zz}
region          box block 0.0 20 0.0 20 0.0 20
create_box      1 box
Created orthogonal box = (0 0 0) to (72.2 72.2 72.2)
  1 by 1 by 1 MPI processor grid
create_atoms    1 box
Created 32000 atoms

#pair_style      kim KIMvirial EAM_Johnson_NearestNeighbor_Cu__MO_887933271505_001
pair_style      kim KIMvirial EAM_Dynamo_Mendelev_King_Cu__MO_748636486270_001
pair_coeff      * * Cu

mass            1 63.546
velocity        all create 200.0 232345 loop geom

neighbor        0.3 bin
neigh_modify    delay 0 every 1 check yes

fix             1 all nve

thermo          100
run             10000
Memory usage per processor = 9.45458 Mbytes
Step Temp E_pair E_mol TotEng Press 
       0          200    -109425.7            0   -108598.46    38682.742 
     100    104.53347   -109030.72            0   -108598.35    39212.517 
     200    95.485058    -108993.3            0   -108598.36    39083.295 
     300    106.27637   -109037.95            0   -108598.37    39056.412 
     400    90.921337   -108974.41            0   -108598.34    38979.063 
     500     104.5335   -109030.74            0   -108598.37    39088.525 
     600    99.231145   -109008.79            0   -108598.36    39027.554 
     700     101.6499    -109018.8            0   -108598.36    39051.589 
     800    103.19913   -109025.21            0   -108598.36     39068.26 
     900    99.521734      -109010            0   -108598.36    39035.309 
    1000    102.85594   -109023.79            0   -108598.36    39060.379 
    1100    100.66103   -109014.71            0   -108598.36    39044.078 
    1200    100.45811   -109013.87            0   -108598.36    39074.143 
    1300    100.94908    -109015.9            0   -108598.36    39025.176 
    1400    100.70255   -109014.88            0   -108598.36    39031.087 
    1500    101.88741   -109019.79            0   -108598.36    39040.824 
    1600     100.9438   -109015.88            0   -108598.36    39040.578 
    1700    99.757024   -109010.97            0   -108598.36     39096.48 
    1800    102.36512   -109021.76            0   -108598.36    39031.042 
    1900    100.82301   -109015.38            0   -108598.36     39053.02 
    2000    101.52947   -109018.31            0   -108598.36    39058.388 
    2100    101.67955   -109018.93            0   -108598.36    39038.758 
    2200     100.6907   -109014.83            0   -108598.36    39022.772 
    2300    102.11152   -109020.71            0   -108598.36    39023.797 
    2400    101.01827   -109016.19            0   -108598.36     39056.47 
    2500    99.596175   -109010.31            0   -108598.36    39033.086 
    2600    99.423768   -109009.59            0   -108598.36    39114.439 
    2700     101.7507   -109019.22            0   -108598.36     39010.88 
    2800    100.91119   -109015.75            0   -108598.36    39057.884 
    2900    99.742924   -109010.92            0   -108598.36    39051.153 
    3000    98.748252    -109006.8            0   -108598.36    39020.256 
    3100    98.267926   -109004.81            0   -108598.36    39062.707 
    3200    101.32208   -109017.45            0   -108598.36    39077.402 
    3300    103.00466   -109024.41            0   -108598.36    39016.509 
    3400    100.32653   -109013.33            0   -108598.36    39069.107 
    3500    100.71425   -109014.93            0   -108598.36    39047.961 
    3600    100.98633   -109016.06            0   -108598.36    39063.505 
    3700    100.13881   -109012.55            0   -108598.36    39032.362 
    3800    99.327297    -109009.2            0   -108598.36    39068.813 
    3900    101.96785   -109020.12            0   -108598.36    39003.055 
    4000    100.89808   -109015.69            0   -108598.36    39034.176 
    4100    101.86101   -109019.68            0   -108598.36    39057.413 
    4200    102.68798    -109023.1            0   -108598.36     39024.39 
    4300     99.43442   -109009.64            0   -108598.36    39058.547 
    4400    100.47321   -109013.94            0   -108598.36    39044.912 
    4500    99.039106      -109008            0   -108598.36    39096.388 
    4600    100.33474   -109013.36            0   -108598.36    39027.125 
    4700    101.27092   -109017.24            0   -108598.36    39052.979 
    4800    98.488949   -109005.73            0   -108598.36    39054.008 
    4900    100.82826    -109015.4            0   -108598.36    39044.457 
    5000    100.55554   -109014.28            0   -108598.36    39075.882 
    5100    99.834468   -109011.29            0   -108598.36    39014.656 
    5200    101.86971   -109019.72            0   -108598.36    39102.334 
    5300    101.68242   -109018.94            0   -108598.36    38985.419 
    5400    100.29199   -109013.19            0   -108598.36    39105.331 
    5500     100.9816   -109016.04            0   -108598.36    39027.661 
    5600    99.485445   -109009.85            0   -108598.36    39042.893 
    5700    100.48929      -109014            0   -108598.36    39067.328 
    5800    101.64973    -109018.8            0   -108598.36    39076.024 
    5900    102.63868   -109022.89            0   -108598.36    39062.904 
    6000    101.73824   -109019.17            0   -108598.36    39051.018 
    6100    100.74951   -109015.08            0   -108598.36    39055.269 
    6200    101.04744   -109016.31            0   -108598.36    39036.645 
    6300    99.700426   -109010.74            0   -108598.36    39089.752 
    6400    103.76188   -109027.54            0   -108598.36    38996.794 
    6500    102.43148   -109022.04            0   -108598.36    39029.825 
    6600    101.84341    -109019.6            0   -108598.36    39052.693 
    6700     100.6885   -109014.83            0   -108598.36    39083.155 
    6800    99.247025   -109008.86            0   -108598.36    39062.928 
    6900    100.66112   -109014.71            0   -108598.36    39023.697 
    7000    102.23354   -109021.22            0   -108598.36    39085.432 
    7100    102.51064   -109022.36            0   -108598.36    39021.862 
    7200     101.3933   -109017.74            0   -108598.36    39086.969 
    7300    101.66677   -109018.87            0   -108598.36    39035.289 
    7400    98.414099   -109005.42            0   -108598.36    39091.135 
    7500    101.70242   -109019.02            0   -108598.36    39032.688 
    7600    102.19495   -109021.06            0   -108598.36    39022.071 
    7700    101.46514   -109018.04            0   -108598.36    39065.792 
    7800    100.93967   -109015.87            0   -108598.36    39048.806 
    7900    100.92923   -109015.82            0   -108598.36    39051.478 
    8000    102.97562   -109024.29            0   -108598.36    39054.821 
    8100    102.52368   -109022.42            0   -108598.36    39041.249 
    8200    100.72448   -109014.98            0   -108598.36    39072.134 
    8300    102.61619    -109022.8            0   -108598.36    38988.839 
    8400    100.87671   -109015.61            0   -108598.36    39055.052 
    8500     102.4211   -109021.99            0   -108598.36    39070.907 
    8600    102.92719   -109024.09            0   -108598.36    39077.397 
    8700    101.86312   -109019.69            0   -108598.36    39040.003 
    8800    103.12037   -109024.89            0   -108598.36    39028.319 
    8900     101.3607   -109017.61            0   -108598.36    39042.432 
    9000    99.852932   -109011.37            0   -108598.36    39072.356 
    9100    103.24645   -109025.41            0   -108598.36    39034.068 
    9200    100.47018   -109013.92            0   -108598.36    39097.066 
    9300     100.9139   -109015.76            0   -108598.36    39065.463 
    9400    102.50104   -109022.33            0   -108598.36    39034.947 
    9500    101.48977   -109018.14            0   -108598.36    39059.096 
    9600    99.956689    -109011.8            0   -108598.36    39055.875 
    9700    100.20809   -109012.84            0   -108598.36    39066.259 
    9800    101.12478   -109016.63            0   -108598.36    39074.992 
    9900       100.21   -109012.85            0   -108598.36    39039.968 
   10000    100.47063   -109013.93            0   -108598.36    39077.147 
Loop time of 940.891 on 1 procs for 10000 steps with 32000 atoms

Pair  time (%) = 900.391 (95.6956)
Neigh time (%) = 30.594 (3.2516)
Comm  time (%) = 2.44882 (0.260266)
Outpt time (%) = 0.0121639 (0.0012928)
Other time (%) = 7.44469 (0.791239)

Nlocal:    32000 ave 32000 max 32000 min
Histogram: 1 0 0 0 0 0 0 0 0 0
Nghost:    19911 ave 19911 max 19911 min
Histogram: 1 0 0 0 0 0 0 0 0 0
Neighs:    1.48016e+06 ave 1.48016e+06 max 1.48016e+06 min
Histogram: 1 0 0 0 0 0 0 0 0 0

Total # of neighbors = 1480162
Ave neighs/atom = 46.2551
Neighbor list builds = 360
Dangerous builds = 0